[Molden Format]
[Atoms] AU
  O     1    8     0.0000000000    0.0000000000    2.5045817300        
  C     2    6     0.0000000000    0.0000000000    0.1953652800        
  C     3    6     0.0000000000   -2.4478801000   -1.3317575000        
  C     4    6     0.0000000000    2.4478801000   -1.3317575000        
  H     5    1     0.0000000000   -4.0819702200   -0.0398773100        
  H     6    1     0.0000000000    4.0819702200   -0.0398773100        
  H     7    1     1.6843029500   -2.5231580800   -2.5704847500        
  H     8    1    -1.6843029500   -2.5231580800   -2.5704847500        
  H     9    1     1.6843029500    2.5231580800   -2.5704847500        
  H    10    1    -1.6843029500    2.5231580800   -2.5704847500        
[5D]
[7F]
[GTO]
  1  0
   s    10 1.00
  0.106623D+05  0.799480D-03
  0.159971D+04  0.615339D-02
  0.364725D+03  0.311544D-01
  0.103652D+03  0.115620D+00
  0.339058D+02  0.301484D+00
  0.122875D+02  0.445165D+00
  0.475680D+01  0.242700D+00
  0.100427D+01  0.140081D-01
  0.300686D+00 -0.364710D-02
  0.105240D+00  0.135794D-02
   s    10 1.00
  0.106623D+05 -0.181300D-03
  0.159971D+04 -0.143230D-02
  0.364725D+03 -0.709230D-02
  0.103652D+03 -0.287298D-01
  0.339058D+02 -0.771976D-01
  0.122875D+02 -0.172269D+00
  0.475680D+01 -0.101762D+00
  0.100427D+01  0.580192D+00
  0.300686D+00  0.525018D+00
  0.105240D+00  0.345363D-01
   s    10 1.00
  0.106623D+05  0.184430D-03
  0.159971D+04  0.161025D-02
  0.364725D+03  0.685698D-02
  0.103652D+03  0.344421D-01
  0.339058D+02  0.684508D-01
  0.122875D+02  0.254862D+00
  0.475680D+01 -0.227490D-02
  0.100427D+01 -0.130932D+01
  0.300686D+00  0.844218D+00
  0.105240D+00  0.502870D+00
   p     6 1.00
  0.348565D+02  0.157100D-01
  0.784313D+01  0.986326D-01
  0.230827D+01  0.311338D+00
  0.723164D+00  0.483935D+00
  0.214882D+00  0.304345D+00
  0.752090D-01  0.741047D-01
   p     6 1.00
  0.348565D+02 -0.142470D-01
  0.784313D+01 -0.824266D-01
  0.230827D+01 -0.350792D+00
  0.723164D+00 -0.308637D+00
  0.214882D+00  0.431588D+00
  0.752090D-01  0.621269D+00
   d     3 1.00
  0.269500D+01  0.316910D+00
  0.722100D+00  0.721821D+00
  0.193500D+00  0.164894D+00
  
  2  0
   s    10 1.00
  0.524064D+04  0.937060D-03
  0.782205D+03  0.722866D-02
  0.178351D+03  0.363437D-01
  0.508159D+02  0.130629D+00
  0.168236D+02  0.318899D+00
  0.617578D+01  0.439079D+00
  0.241805D+01  0.214477D+00
  0.511900D+00  0.952912D-02
  0.156590D+00 -0.242230D-02
  0.548060D-01  0.859270D-03
   s    10 1.00
  0.524064D+04 -0.201400D-03
  0.782205D+03 -0.159130D-02
  0.178351D+03 -0.785790D-02
  0.508159D+02 -0.307856D-01
  0.168236D+02 -0.777605D-01
  0.617578D+01 -0.165480D+00
  0.241805D+01 -0.935316D-01
  0.511900D+00  0.591068D+00
  0.156590D+00  0.510180D+00
  0.548060D-01  0.360209D-01
   s    10 1.00
  0.524064D+04  0.189480D-03
  0.782205D+03  0.159917D-02
  0.178351D+03  0.715871D-02
  0.508159D+02  0.325510D-01
  0.168236D+02  0.667122D-01
  0.617578D+01  0.210715D+00
  0.241805D+01  0.160634D-01
  0.511900D+00 -0.120608D+01
  0.156590D+00  0.623592D+00
  0.548060D-01  0.675554D+00
   p     6 1.00
  0.188418D+02  0.136325D-01
  0.415924D+01  0.838105D-01
  0.120671D+01  0.285792D+00
  0.385540D+00  0.486416D+00
  0.121940D+00  0.314764D+00
  0.426790D-01  0.909344D-01
   p     6 1.00
  0.188418D+02 -0.127012D-01
  0.415924D+01 -0.672664D-01
  0.120671D+01 -0.340423D+00
  0.385540D+00 -0.374777D+00
  0.121940D+00  0.422841D+00
  0.426790D-01  0.642839D+00
   d     3 1.00
  0.128380D+01  0.320879D+00
  0.344000D+00  0.723314D+00
  0.922000D-01  0.157214D+00
  
  3  0
   s    10 1.00
  0.524064D+04  0.937060D-03
  0.782205D+03  0.722866D-02
  0.178351D+03  0.363437D-01
  0.508159D+02  0.130629D+00
  0.168236D+02  0.318899D+00
  0.617578D+01  0.439079D+00
  0.241805D+01  0.214477D+00
  0.511900D+00  0.952912D-02
  0.156590D+00 -0.242230D-02
  0.548060D-01  0.859270D-03
   s    10 1.00
  0.524064D+04 -0.201400D-03
  0.782205D+03 -0.159130D-02
  0.178351D+03 -0.785790D-02
  0.508159D+02 -0.307856D-01
  0.168236D+02 -0.777605D-01
  0.617578D+01 -0.165480D+00
  0.241805D+01 -0.935316D-01
  0.511900D+00  0.591068D+00
  0.156590D+00  0.510180D+00
  0.548060D-01  0.360209D-01
   s    10 1.00
  0.524064D+04  0.189480D-03
  0.782205D+03  0.159917D-02
  0.178351D+03  0.715871D-02
  0.508159D+02  0.325510D-01
  0.168236D+02  0.667122D-01
  0.617578D+01  0.210715D+00
  0.241805D+01  0.160634D-01
  0.511900D+00 -0.120608D+01
  0.156590D+00  0.623592D+00
  0.548060D-01  0.675554D+00
   p     6 1.00
  0.188418D+02  0.136325D-01
  0.415924D+01  0.838105D-01
  0.120671D+01  0.285792D+00
  0.385540D+00  0.486416D+00
  0.121940D+00  0.314764D+00
  0.426790D-01  0.909344D-01
   p     6 1.00
  0.188418D+02 -0.127012D-01
  0.415924D+01 -0.672664D-01
  0.120671D+01 -0.340423D+00
  0.385540D+00 -0.374777D+00
  0.121940D+00  0.422841D+00
  0.426790D-01  0.642839D+00
   d     3 1.00
  0.128380D+01  0.320879D+00
  0.344000D+00  0.723314D+00
  0.922000D-01  0.157214D+00
  
  4  0
   s    10 1.00
  0.524064D+04  0.937060D-03
  0.782205D+03  0.722866D-02
  0.178351D+03  0.363437D-01
  0.508159D+02  0.130629D+00
  0.168236D+02  0.318899D+00
  0.617578D+01  0.439079D+00
  0.241805D+01  0.214477D+00
  0.511900D+00  0.952912D-02
  0.156590D+00 -0.242230D-02
  0.548060D-01  0.859270D-03
   s    10 1.00
  0.524064D+04 -0.201400D-03
  0.782205D+03 -0.159130D-02
  0.178351D+03 -0.785790D-02
  0.508159D+02 -0.307856D-01
  0.168236D+02 -0.777605D-01
  0.617578D+01 -0.165480D+00
  0.241805D+01 -0.935316D-01
  0.511900D+00  0.591068D+00
  0.156590D+00  0.510180D+00
  0.548060D-01  0.360209D-01
   s    10 1.00
  0.524064D+04  0.189480D-03
  0.782205D+03  0.159917D-02
  0.178351D+03  0.715871D-02
  0.508159D+02  0.325510D-01
  0.168236D+02  0.667122D-01
  0.617578D+01  0.210715D+00
  0.241805D+01  0.160634D-01
  0.511900D+00 -0.120608D+01
  0.156590D+00  0.623592D+00
  0.548060D-01  0.675554D+00
   p     6 1.00
  0.188418D+02  0.136325D-01
  0.415924D+01  0.838105D-01
  0.120671D+01  0.285792D+00
  0.385540D+00  0.486416D+00
  0.121940D+00  0.314764D+00
  0.426790D-01  0.909344D-01
   p     6 1.00
  0.188418D+02 -0.127012D-01
  0.415924D+01 -0.672664D-01
  0.120671D+01 -0.340423D+00
  0.385540D+00 -0.374777D+00
  0.121940D+00  0.422841D+00
  0.426790D-01  0.642839D+00
   d     3 1.00
  0.128380D+01  0.320879D+00
  0.344000D+00  0.723314D+00
  0.922000D-01  0.157214D+00
  
  5  0
   s     7 1.00
  0.826364D+02  0.256413D-02
  0.124096D+02  0.192126D-01
  0.282385D+01  0.950512D-01
  0.797670D+00  0.301868D+00
  0.258053D+00  0.487446D+00
  0.898910D-01  0.235479D+00
  0.314620D-01  0.157778D-01
   s     7 1.00
  0.826364D+02 -0.460080D-02
  0.124096D+02 -0.324447D-01
  0.282385D+01 -0.171074D+00
  0.797670D+00 -0.504867D+00
  0.258053D+00 -0.948920D-01
  0.898910D-01  0.370856D+00
  0.314620D-01  0.655651D+00
   p     3 1.00
  0.166250D+01  0.301277D+00
  0.415600D+00  0.680057D+00
  0.103900D+00  0.198563D+00
  
  6  0
   s     7 1.00
  0.826364D+02  0.256413D-02
  0.124096D+02  0.192126D-01
  0.282385D+01  0.950512D-01
  0.797670D+00  0.301868D+00
  0.258053D+00  0.487446D+00
  0.898910D-01  0.235479D+00
  0.314620D-01  0.157778D-01
   s     7 1.00
  0.826364D+02 -0.460080D-02
  0.124096D+02 -0.324447D-01
  0.282385D+01 -0.171074D+00
  0.797670D+00 -0.504867D+00
  0.258053D+00 -0.948920D-01
  0.898910D-01  0.370856D+00
  0.314620D-01  0.655651D+00
   p     3 1.00
  0.166250D+01  0.301277D+00
  0.415600D+00  0.680057D+00
  0.103900D+00  0.198563D+00
  
  7  0
   s     7 1.00
  0.826364D+02  0.256413D-02
  0.124096D+02  0.192126D-01
  0.282385D+01  0.950512D-01
  0.797670D+00  0.301868D+00
  0.258053D+00  0.487446D+00
  0.898910D-01  0.235479D+00
  0.314620D-01  0.157778D-01
   s     7 1.00
  0.826364D+02 -0.460080D-02
  0.124096D+02 -0.324447D-01
  0.282385D+01 -0.171074D+00
  0.797670D+00 -0.504867D+00
  0.258053D+00 -0.948920D-01
  0.898910D-01  0.370856D+00
  0.314620D-01  0.655651D+00
   p     3 1.00
  0.166250D+01  0.301277D+00
  0.415600D+00  0.680057D+00
  0.103900D+00  0.198563D+00
  
  8  0
   s     7 1.00
  0.826364D+02  0.256413D-02
  0.124096D+02  0.192126D-01
  0.282385D+01  0.950512D-01
  0.797670D+00  0.301868D+00
  0.258053D+00  0.487446D+00
  0.898910D-01  0.235479D+00
  0.314620D-01  0.157778D-01
   s     7 1.00
  0.826364D+02 -0.460080D-02
  0.124096D+02 -0.324447D-01
  0.282385D+01 -0.171074D+00
  0.797670D+00 -0.504867D+00
  0.258053D+00 -0.948920D-01
  0.898910D-01  0.370856D+00
  0.314620D-01  0.655651D+00
   p     3 1.00
  0.166250D+01  0.301277D+00
  0.415600D+00  0.680057D+00
  0.103900D+00  0.198563D+00
  
  9  0
   s     7 1.00
  0.826364D+02  0.256413D-02
  0.124096D+02  0.192126D-01
  0.282385D+01  0.950512D-01
  0.797670D+00  0.301868D+00
  0.258053D+00  0.487446D+00
  0.898910D-01  0.235479D+00
  0.314620D-01  0.157778D-01
   s     7 1.00
  0.826364D+02 -0.460080D-02
  0.124096D+02 -0.324447D-01
  0.282385D+01 -0.171074D+00
  0.797670D+00 -0.504867D+00
  0.258053D+00 -0.948920D-01
  0.898910D-01  0.370856D+00
  0.314620D-01  0.655651D+00
   p     3 1.00
  0.166250D+01  0.301277D+00
  0.415600D+00  0.680057D+00
  0.103900D+00  0.198563D+00
  
 10  0
   s     7 1.00
  0.826364D+02  0.256413D-02
  0.124096D+02  0.192126D-01
  0.282385D+01  0.950512D-01
  0.797670D+00  0.301868D+00
  0.258053D+00  0.487446D+00
  0.898910D-01  0.235479D+00
  0.314620D-01  0.157778D-01
   s     7 1.00
  0.826364D+02 -0.460080D-02
  0.124096D+02 -0.324447D-01
  0.282385D+01 -0.171074D+00
  0.797670D+00 -0.504867D+00
  0.258053D+00 -0.948920D-01
  0.898910D-01  0.370856D+00
  0.314620D-01  0.655651D+00
   p     3 1.00
  0.166250D+01  0.301277D+00
  0.415600D+00  0.680057D+00
  0.103900D+00  0.198563D+00
  
[MO]
 Sym= __1_A__
 Ene=  0.000000000000000E+000
 Spin= Alpha
 Occup=    2.00000000000000     
                     1   1.00017934177415     
                     2  1.608699623913070E-003
                     3  7.337825836818823E-005
                     4 -1.311635082402165E-010
                     5 -1.059362592846741E-013
                     6 -1.191318677948999E-003
                     7  5.703274989729888E-011
                     8 -2.794254293222555E-012
                     9  7.716457132219369E-004
                    10  2.852012361493164E-004
                    11  4.472698497191971E-011
                    12  7.393581221814955E-014
                    13  4.367187170489120E-005
                    14 -1.995062565330439E-012
                    15  1.501522167560884E-005
                    16 -1.255818581806176E-004
                    17  9.619148675996313E-005
                    18 -4.776703471743659E-011
                    19 -2.968831545624058E-012
                    20 -7.756183207642480E-004
                    21 -2.092488544702565E-011
                    22 -1.671655523799087E-012
                    23 -2.858876187378130E-004
                    24 -8.897008411263400E-004
                    25  8.522808632400892E-012
                    26  9.496636923386405E-014
                    27 -1.514213806485917E-004
                    28  1.599722618473316E-012
                    29 -2.951530669640702E-005
                    30 -1.038073278714179E-004
                    31  4.124619358934678E-005
                    32  8.433543577887177E-012
                    33 -1.529648513050569E-004
                    34 -5.094318181904784E-005
                    35 -4.984542534574674E-012
                    36 -8.644850415225958E-005
                    37  5.054029708260106E-005
                    38 -3.967665883565250E-005
                    39  6.061310808634470E-013
                    40 -1.556542849899926E-004
                    41 -1.567063215895008E-004
                    42  6.881410097271960E-012
                    43 -2.951530308540943E-005
                    44 -1.038073134210809E-004
                    45  4.124619828385937E-005
                    46  2.494427456982536E-012
                    47  1.529648492075126E-004
                    48 -5.094318395897623E-005
                    49 -4.758807716585066E-012
                    50  8.644849828710851E-005
                    51  5.054029688759305E-005
                    52 -3.967665930983647E-005
                    53 -2.061635595043615E-012
                    54  1.556542860294171E-004
                    55 -1.567063219086174E-004
                    56 -5.239731083172334E-012
                    57 -3.217334793409469E-004
                    58 -1.257009433740999E-004
                    59  7.791617720256135E-013
                    60 -3.131441638068306E-005
                    61  6.536934755257211E-005
                    62 -3.217334766380517E-004
                    63 -1.257009383139523E-004
                    64  3.192139637817753E-012
                    65  3.131441551926681E-005
                    66  6.536934842220148E-005
                    67  4.230399656701574E-005
                    68 -1.359888839175123E-005
                    69 -1.511992668564096E-005
                    70 -2.495774353218251E-005
                    71  1.755810779275139E-005
                    72  4.230395377823864E-005
                    73 -1.359891196476994E-005
                    74  1.511992641091019E-005
                    75 -2.495774228715451E-005
                    76  1.755810396114821E-005
                    77  4.230399277235683E-005
                    78 -1.359889223659310E-005
                    79 -1.511992472814088E-005
                    80  2.495774281875385E-005
                    81  1.755810767493195E-005
                    82  4.230394890691724E-005
                    83 -1.359891086173721E-005
                    84  1.511992524480455E-005
                    85  2.495774335432242E-005
                    86  1.755810162458818E-005
 Sym= __2_A__
 Ene=  0.000000000000000E+000
 Spin= Alpha
 Occup=    2.00000000000000     
                     1  2.957781004049242E-004
                     2 -2.258034624634412E-004
                     3  9.594670937487497E-006
                     4 -6.512653245885858E-012
                     5 -6.051503005189085E-012
                     6  3.354438488009447E-004
                     7 -2.568106543654385E-011
                     8 -5.954895184586853E-012
                     9 -1.288446666209990E-004
                    10 -1.511309549051858E-004
                    11 -2.506767930891035E-011
                    12  4.640272251769321E-013
                    13 -1.691796173436515E-005
                    14 -1.781734720175842E-013
                    15 -0.997811092563536     
                    16  7.379828394587624E-004
                    17  3.143660169296378E-003
                    18 -5.228244576309258E-011
                    19  1.697674829216335E-011
                    20 -1.103793515723023E-003
                    21  1.056524240444136E-010
                    22  1.778994794877951E-011
                    23 -8.543607342871947E-006
                    24 -5.338731446099585E-004
                    25  3.355944942037042E-011
                    26  1.846306868916532E-012
                    27 -2.544913563629496E-004
                    28  1.564166294700340E-012
                    29 -4.197473618824929E-002
                    30 -1.493276441173661E-003
                    31 -6.084773574746502E-004
                    32 -4.221612519656143E-011
                    33 -5.840646711300545E-004
                    34 -7.116807373256388E-004
                    35 -5.098763926622194E-011
                    36 -2.955053040228946E-004
                    37 -4.750727505985041E-004
                    38  1.229345335217356E-005
                    39  9.660231950170559E-012
                    40 -7.601660235708175E-005
                    41 -8.248098852534858E-005
                    42  1.717403158153440E-011
                    43 -4.197473628248687E-002
                    44 -1.493276457596717E-003
                    45 -6.084773684103321E-004
                    46 -3.876971548475754E-011
                    47  5.840646598585423E-004
                    48 -7.116807577734072E-004
                    49 -4.906564027141674E-011
                    50  2.955052929182703E-004
                    51 -4.750727671260863E-004
                    52  1.229345463239701E-005
                    53  7.428828297322719E-012
                    54  7.601660441911845E-005
                    55 -8.248098515580165E-005
                    56 -1.738926041790177E-011
                    57  1.700145118042405E-004
                    58  1.199649959077754E-004
                    59  7.602161037998954E-012
                    60 -4.768901968892948E-005
                    61 -1.110765188696514E-005
                    62  1.700145270394184E-004
                    63  1.199650077752265E-004
                    64  8.257715105295930E-012
                    65  4.768901884344767E-005
                    66 -1.110765510392792E-005
                    67 -1.781285672714389E-004
                    68 -2.229940267127014E-004
                    69  4.174678427662490E-005
                    70 -7.184312669381104E-005
                    71 -1.527881861658781E-005
                    72 -1.781286656729319E-004
                    73 -2.229940733301510E-004
                    74 -4.174679366155084E-005
                    75 -7.184311567581944E-005
                    76 -1.527882875124054E-005
                    77 -1.781285827936793E-004
                    78 -2.229940386639139E-004
                    79  4.174678852215607E-005
                    80  7.184312891724106E-005
                    81 -1.527881855804049E-005
                    82 -1.781286677957103E-004
                    83 -2.229940738246860E-004
                    84 -4.174679648230935E-005
                    85  7.184311746104013E-005
                    86 -1.527882490849894E-005
 Sym= __3_A__
 Ene=  0.000000000000000E+000
 Spin= Alpha
 Occup=    2.00000000000000     
                     1 -5.313120537407043E-012
                     2 -1.879907718630943E-011
                     3 -2.847442978513501E-011
                     4  2.512094659660716E-012
                     5  1.282898375467796E-004
                     6  2.291079876256615E-011
                     7  1.292719137757135E-012
                     8  3.781203305503054E-005
                     9  4.154486834792172E-011
                    10 -2.687825608541178E-012
                    11 -1.011683272548808E-012
                    12 -1.223751265867925E-005
                    13  1.443974779446354E-011
                    14 -2.003776180787661E-013
                    15  1.314938498635055E-008
                    16 -1.084791399130492E-010
                    17 -4.986179771620792E-011
                    18 -1.241266092480937E-012
                    19 -5.603031961309032E-004
                    20  2.884940104853968E-011
                    21 -1.577337981205726E-012
                    22 -6.048008631817826E-004
                    23 -2.501756419698401E-011
                    24  1.416667275765465E-011
                    25 -1.228823904140942E-012
                    26 -2.452675823565070E-004
                    27 -5.869943607538154E-011
                    28 -3.842352572128048E-012
                    29  0.706933263226714     
                    30 -1.325201119663435E-004
                    31 -1.931579901241709E-003
                    32 -7.634756740343925E-012
                    33 -5.981605577326306E-004
                    34  1.768509503390488E-004
                    35  3.693065361562188E-013
                    36 -6.783119436515161E-004
                    37  1.087723077946824E-004
                    38  1.931032583065725E-005
                    39  1.009532056859453E-012
                    40 -5.249646221767761E-005
                    41  7.389602282883345E-005
                    42 -4.671920807951454E-012
                    43 -0.706933575811028     
                    44  1.325199712688176E-004
                    45  1.931580568707199E-003
                    46  1.229988957730083E-011
                    47 -5.981604369689464E-004
                    48 -1.768509296436987E-004
                    49  2.966413192727792E-012
                    50 -6.783119416442086E-004
                    51 -1.087722386959731E-004
                    52 -1.931034105329785E-005
                    53  1.120263434604496E-014
                    54 -5.249648111182813E-005
                    55 -7.389600860430704E-005
                    56 -1.232689352697655E-012
                    57 -1.397936491957179E-005
                    58 -4.687726322642753E-004
                    59 -1.719221433805554E-012
                    60 -1.149888068701847E-004
                    61  4.105885519753967E-005
                    62  1.397902150369401E-005
                    63  4.687725151466936E-004
                    64 -1.522629932988579E-012
                    65 -1.149888290535199E-004
                    66 -4.105885635001396E-005
                    67  7.120907261498837E-004
                    68  1.255693260407442E-004
                    69  4.220055404672803E-005
                    70 -5.422775734177682E-006
                    71 -6.917853185465134E-005
                    72  7.120907153271188E-004
                    73  1.255693247349149E-004
                    74 -4.220055711652143E-005
                    75 -5.422777766096036E-006
                    76 -6.917853407292374E-005
                    77 -7.120909598773281E-004
                    78 -1.255693527729651E-004
                    79 -4.220058277229908E-005
                    80 -5.422789581023256E-006
                    81  6.917854423505426E-005
                    82 -7.120909409599440E-004
                    83 -1.255693446540623E-004
                    84  4.220058694059423E-005
                    85 -5.422788423897420E-006
                    86  6.917854765152670E-005
 Sym= __4_A__
 Ene=  0.000000000000000E+000
 Spin= Alpha
 Occup=    2.00000000000000     
                     1 -2.925452612346634E-005
                     2 -8.508311896451272E-005
                     3 -1.289801450803009E-004
                     4 -2.083042570384159E-011
                     5 -2.813160201455069E-011
                     6  1.049627529478688E-004
                     7  2.087566946396480E-012
                     8 -8.315891702241390E-012
                     9  1.879765756119167E-004
                    10 -1.252142687459241E-005
                    11  2.699104555355461E-012
                    12  2.744155663857244E-012
                    13  6.519837226407989E-005
                    14  1.627633048241549E-013
                    15  5.908367720819450E-002
                    16 -4.897823111647206E-004
                    17 -2.239594278376790E-004
                    18 -2.259653612399867E-011
                    19  1.244512883842257E-010
                    20  1.314930465922065E-004
                    21 -5.135678002028320E-012
                    22  1.341609885561809E-010
                    23 -1.127851461808943E-004
                    24  6.410278361277832E-005
                    25 -1.820162452161021E-012
                    26  5.396616035063026E-011
                    27 -2.652529496388736E-004
                    28 -1.349614551873922E-012
                    29 -0.705733104262724     
                    30 -3.184621386440002E-004
                    31  1.506296554388268E-003
                    32  1.345518558439887E-011
                    33 -2.716303529998869E-004
                    34  4.398616571934896E-005
                    35  4.317400832362479E-012
                    36 -2.884217454261268E-006
                    37  1.544392092470944E-004
                    38 -3.418641197074752E-005
                    39 -2.299921077387889E-012
                    40  4.278095512752013E-005
                    41  3.253769742241746E-005
                    42  1.034278110546247E-012
                    43 -0.705732791141266     
                    44 -3.184621971333588E-004
                    45  1.506295698985592E-003
                    46  1.352894847090182E-011
                    47  2.716306176325974E-004
                    48  4.398624296893621E-005
                    49  5.074317728197747E-012
                    50  2.884517753277003E-006
                    51  1.544392563959974E-004
                    52 -3.418640298021348E-005
                    53 -2.077222997651501E-012
                    54 -4.278093155400125E-005
                    55  3.253773020989496E-005
                    56 -1.275966766582627E-012
                    57 -7.718284100276093E-004
                    58 -2.626873583164600E-004
                    59 -4.104866308080234E-013
                    60  5.032853190415661E-005
                    61 -2.838499004165604E-006
                    62 -7.718284158893646E-004
                    63 -2.626875657053177E-004
                    64 -4.215148071613889E-013
                    65 -5.032848115093896E-005
                    66 -2.838481066333580E-006
                    67 -5.197144037400382E-004
                    68 -5.351050835560699E-005
                    69 -6.598486976158591E-005
                    70  2.766059714668315E-005
                    71  2.921259186153588E-005
                    72 -5.197143894085687E-004
                    73 -5.351049897588337E-005
                    74  6.598487484670334E-005
                    75  2.766059752869436E-005
                    76  2.921259569938468E-005
                    77 -5.197140857218046E-004
                    78 -5.351045083706005E-005
                    79 -6.598485214271145E-005
                    80 -2.766059549074475E-005
                    81  2.921256233979687E-005
                    82 -5.197140785459063E-004
                    83 -5.351044627719715E-005
                    84  6.598485482287592E-005
                    85 -2.766059361405324E-005
                    86  2.921256451799907E-005
 Sym= __5_A__
 Ene=  0.000000000000000E+000
 Spin= Alpha
 Occup=    2.00000000000000     
                     1 -2.721583487955332E-002
                     2  0.724393300584191     
                     3 -2.673068163842039E-002
                     4 -1.830557213819911E-009
                     5 -8.339781384387170E-012
                     6 -0.142493418480391     
                     7 -4.711229873305078E-011
                     8 -5.073640513569104E-012
                     9  5.860156165157820E-002
                    10  2.162653442853224E-002
                    11  2.274449763106489E-010
                    12 -2.534755362450652E-012
                    13 -1.053413160003438E-004
                    14 -9.790606055103873E-012
                    15 -4.694755499257532E-002
                    16  0.264210987547109     
                    17 -4.035208776048937E-002
                    18  2.497330147795522E-009
                    19  1.538575199072895E-011
                    20  0.145856327650939     
                    21  1.464583177185303E-009
                    22  9.256122941564640E-012
                    23 -9.786895028933131E-002
                    24  5.310201016266087E-002
                    25 -2.705164796797371E-010
                    26 -1.760159570832263E-012
                    27  8.478386528918380E-004
                    28 -1.012958089907464E-011
                    29 -7.464255201667267E-003
                    30  3.078320795386858E-002
                    31 -1.286919663655089E-002
                    32 -5.051727370867805E-010
                    33  1.588765116850589E-002
                    34  4.499811358471177E-002
                    35 -4.270231931034246E-010
                    36 -7.909417154261258E-003
                    37  1.865796324401500E-002
                    38  1.457777252333606E-003
                    39  2.151529222397995E-010
                    40  9.021314045783857E-003
                    41 -1.302446701263626E-003
                    42  1.910924578542115E-010
                    43 -7.464255211075150E-003
                    44  3.078320792319118E-002
                    45 -1.286919666361126E-002
                    46 -5.115193069131389E-010
                    47 -1.588765120507411E-002
                    48  4.499811355079476E-002
                    49 -4.367959247695444E-010
                    50  7.909417109213652E-003
                    51  1.865796322548130E-002
                    52  1.457777259811233E-003
                    53  2.156341903904500E-010
                    54 -9.021314038068780E-003
                    55 -1.302446696084512E-003
                    56 -1.908495802161951E-010
                    57  7.204319942844791E-003
                    58 -4.838300389869712E-003
                    59  2.111312495070963E-011
                    60  1.526377708830468E-003
                    61 -1.660735614233799E-003
                    62  7.204320002797206E-003
                    63 -4.838300357479123E-003
                    64  2.356884298527702E-011
                    65 -1.526377713731615E-003
                    66 -1.660735617232270E-003
                    67  1.496061884455194E-002
                    68  3.647080233583894E-003
                    69 -2.548819391083413E-003
                    70  3.062690664351250E-005
                    71 -3.679394530223028E-004
                    72  1.496062019148034E-002
                    73  3.647080494397215E-003
                    74  2.548819358799258E-003
                    75  3.062688914814464E-005
                    76 -3.679395035339701E-004
                    77  1.496061885788207E-002